8
Lattice="5.007382 0 0 0 5.007382 0 0 0 5.007382 " PBC="1 1 1" Properties=species:S:1:pos:R:3:force:R:3 Energy="-31.4866658515"
Si    0.00000e+00   0.00000e+00   0.00000e+00  4.44089e-16  -1.38778e-17   0.00000e+00
Si    2.50369e+00   2.50369e+00   0.00000e+00  1.04083e-16   1.33574e-16  -4.44082e-16
Si    0.00000e+00   2.50369e+00   2.50369e+00 -4.44089e-16  -8.32667e-17  -8.32667e-17
Si    2.50369e+00   0.00000e+00   2.50369e+00 -4.85723e-16   1.73472e-18  -2.20303e-16
Si    1.25185e+00   1.25185e+00   1.25185e+00 -4.16334e-16  -3.12250e-17  -4.23273e-16
Si    3.75554e+00   3.75554e+00   1.25185e+00 -2.56739e-16  -2.22045e-16   2.16298e-16
Si    1.25185e+00   3.75554e+00   3.75554e+00 -5.89806e-16   4.37150e-16  -3.45589e-18
Si    3.75554e+00   1.25185e+00   3.75554e+00 -4.16334e-17   1.07553e-16  -4.49290e-16
